 Gaussian 16, Revision B.01,
 Gaussian 16:  ES64L-G16RevB.01 20-Dec-2017

 -----------------------
 #p MP2(Full)/STO-3G NMR
 -----------------------

 -------
 [Title]
 -------
 Symbolic Z-matrix:
 Charge =  0 Multiplicity = 1

                         Standard orientation:
 ---------------------------------------------------------------------
 Center     Atomic      Atomic             Coordinates (Angstroms)
 Number     Number       Type             X           Y           Z
 ---------------------------------------------------------------------
      1          7           0       -0.176490   -0.173084    0.017124
      2          1           0        0.249600    0.598673    0.529803
      3          1           0        1.338419   -0.087022   -0.201152
      4          1           0       -0.352588    0.699937   -0.448520
 ---------------------------------------------------------------------

 SCF Done:  E(RHF) =  -55.2535405369     A.U. after   11 cycles
 E2 =    -0.8936259181D-01 EUMP2 =    -0.55342903128740D+02
 E2 =    -0.8936259181D-01 EUMP2 =    -0.55342903128740D+02

      1  N    Isotropic =   292.5252   Anisotropy =   130.4969

      2  H    Isotropic =    29.9780   Anisotropy =    10.0555

      3  H    Isotropic =    26.4878   Anisotropy =     7.8257

      4  H    Isotropic =    31.4998   Anisotropy =    15.9451

 The electronic state is 1-A.
 Alpha  occ. eigenvalues --  -15.34765  -1.11121  -0.50871  -0.46617  -0.36679
 Alpha virt. eigenvalues --    0.28298   0.64182   0.66256

 Mulliken charges:
               1
     1  N   -0.334652
     2  H    0.150767
     3  H    0.030654
     4  H    0.153231
 Sum of Mulliken charges =  -0.00000

 Dipole moment (field-independent basis, Debye):
    X=              0.9586    Y=              2.0305    Z=             -0.1432  Tot=              2.2500
 Quadrupole moment (field-independent basis, Debye-Ang):
   XX=             -6.4682   YY=             -6.8390   ZZ=             -7.3265
   XY=             -0.2522   XZ=              0.1379   YZ=              0.0476

 Normal termination of Gaussian 16 at Wed Feb  9 13:23:47 2022.
