 Gaussian 16, Revision B.01,
 Gaussian 16:  ES64L-G16RevB.01 20-Dec-2017

 -------------------------------------------------------
 #t Freq(Anharmonic) NoSymm Temperature=2500 IOp(7/33=3)
 -------------------------------------------------------
 ----------
 [No Title]
 ----------
 Symbolic Z-matrix:
 Charge =  0 Multiplicity = 1

 SCF Done:  E(RHF) =  -55.3753154197     A.U. after   10 cycles
 ******    1 imaginary frequencies (negative Signs) ******
    1 imaginary frequencies ignored.
 SCF Done:  E(RHF) =  -55.3751949955     A.U. after    8 cycles
 SCF Done:  E(RHF) =  -55.3754485497     A.U. after    8 cycles
 SCF Done:  E(RHF) =  -55.3756270195     A.U. after    8 cycles
 SCF Done:  E(RHF) =  -55.3749656582     A.U. after    8 cycles
 SCF Done:  E(RHF) =  -55.3731100317     A.U. after    8 cycles
 SCF Done:  E(RHF) =  -55.3774703747     A.U. after    8 cycles
 SCF Done:  E(RHF) =  -55.3776722799     A.U. after    8 cycles
 SCF Done:  E(RHF) =  -55.3729012202     A.U. after    8 cycles
 SCF Done:  E(RHF) =  -55.3750950127     A.U. after    8 cycles
 SCF Done:  E(RHF) =  -55.3753328714     A.U. after    8 cycles
 SCF Done:  E(RHF) =  -55.3774193585     A.U. after    8 cycles
 SCF Done:  E(RHF) =  -55.3728604612     A.U. after    8 cycles

 Alpha  occ. eigenvalues --  -15.25613  -1.02803  -0.54817  -0.52518  -0.30179
 Alpha virt. eigenvalues --    0.42935   0.73609   0.84767

 Mulliken charges:
               1
     1  N   -0.496108
     2  H    0.178399
     3  H    0.162368
     4  H    0.155341
 Sum of Mulliken charges =   0.00000

 Dipole moment (field-independent basis, Debye):
    X=             -0.0146    Y=             -0.5226    Z=              0.0723  Tot=              0.5278
  Exact polarizability:   8.228   1.043   0.713   1.812   0.581   4.841
 Approx polarizability:   6.430   0.855   0.468   1.463   0.484   3.728
 GetPCM: File not found, return IValue=0.
 SCFChk:  SCF convergence  5.70D-09 required  1.00D-08
 Pair potential:
 LT D matrices:
                1             2             3             4             5
      1  0.207506D+01
      2 -0.283316D+00  0.119011D+01
      3  0.669066D-02 -0.533941D-01  0.675298D+00

 ******    1 imaginary frequencies (negative Signs) ******

                      1                      2                      3
                      A                      A                      A
 Frequencies --   -969.7468              1680.3876              1931.7870
 Red. masses --      1.2059                 1.0997                 1.0365
 Frc consts  --      0.6681                 1.8295                 2.2790
 IR Inten    --    515.5475                11.5279                 7.1010

                      4                      5                      6
                      A                      A                      A
 Frequencies --   2059.6440              3874.8221              5095.7777
 Red. masses --      1.1060                 1.0727                 1.0781
 Frc consts  --      2.7643                 9.4897                16.4947
 IR Inten    --     10.1401                 3.0125                 0.6640

 - Thermochemistry -
 -------------------
 Temperature  2500.000 Kelvin.  Pressure   1.00000 Atm.
 Atom     1 has atomic number  7 and mass  14.00307

 Molecular mass:    17.02655 amu.
 Principal axes and moments of inertia in atomic units:
                           1         2         3
     Eigenvalues --     4.33849   8.41533  12.60467
           X            0.90171  -0.41570  -0.11880
           Y            0.14787   0.03832   0.98826
           Z            0.40627   0.90869  -0.09603
 This molecule is an asymmetric top.
 Rotational symmetry number  1.
 Rotational temperatures (Kelvin)     19.96407    10.29240     6.87157
 Rotational constants (GHZ):         415.98378   214.45873   143.18037
    1 imaginary frequencies ignored.
 Zero-point vibrational energy      87581.1 (Joules/Mol)
                                   20.93239 (Kcal/Mol)
 Warning -- explicit consideration of   5 degrees of freedom as
           vibrations may cause significant error
 Vibrational temperatures:   2417.70  2779.41  2963.37  5575.00  7331.69
          (Kelvin)

 Zero-point correction=                           0.033358 (Hartree/Particle)
 Thermal correction to Energy=                    0.073685
 Thermal correction to Enthalpy=                  0.081602
 Thermal correction to Gibbs Free Energy=        -0.206053
 Sum of electronic and zero-point Energies=            -55.341958
 Sum of electronic and thermal Energies=               -55.301631
 Sum of electronic and thermal Enthalpies=             -55.293714
 Sum of electronic and thermal Free Energies=          -55.581369

                     E (Thermal)             CV                S
                      KCal/Mol        Cal/Mol-Kelvin    Cal/Mol-Kelvin
 Total                   46.238             13.715             72.202
 Electronic               0.000              0.000              0.000
 Translational            7.452              2.981             45.005
 Rotational               7.452              2.981             20.234
 Vibrational             31.334              7.753              6.964
 Vibration     1          5.349              1.839              2.129
 Vibration     2          5.469              1.795              1.876
 Vibration     3          5.537              1.770              1.762
 Vibration     4          6.874              1.334              0.760
 Vibration     5          8.104              1.015              0.437

 Normal termination of Gaussian 16 at Sun Jun 27 11:53:26 2021.
