 Gaussian 09, Revision C.01,
 Gaussian 09:  EM64L-G09RevC.01 23-Sep-2011

 -------------------------------------------------------
 #t Freq(Anharmonic) NoSymm Temperature=2500 IOp(7/33=3)
 -------------------------------------------------------
 ----------
 [No Title]
 ----------
 Charge =  0 Multiplicity = 1

 SCF Done:  E(RHF) =  -55.3753154186     A.U. after   10 cycles
 ******    1 imaginary frequencies (negative Signs) ******
    1 imaginary frequencies ignored.
 SCF Done:  E(RHF) =  -55.3751949944     A.U. after    8 cycles
 SCF Done:  E(RHF) =  -55.3754485487     A.U. after    8 cycles
 SCF Done:  E(RHF) =  -55.3774193573     A.U. after    8 cycles
 SCF Done:  E(RHF) =  -55.3728604603     A.U. after    8 cycles
 SCF Done:  E(RHF) =  -55.3750950116     A.U. after    8 cycles
 SCF Done:  E(RHF) =  -55.3753328704     A.U. after    9 cycles
 SCF Done:  E(RHF) =  -55.3776722786     A.U. after    8 cycles
 SCF Done:  E(RHF) =  -55.3729012194     A.U. after    8 cycles
 SCF Done:  E(RHF) =  -55.3731100302     A.U. after    8 cycles
 SCF Done:  E(RHF) =  -55.3774703739     A.U. after    8 cycles
 SCF Done:  E(RHF) =  -55.3756270185     A.U. after    8 cycles
 SCF Done:  E(RHF) =  -55.3749656571     A.U. after    9 cycles

 Alpha  occ. eigenvalues --  -15.25584  -1.02513  -0.54694  -0.52339  -0.30102
 Alpha virt. eigenvalues --    0.42796   0.73812   0.83464

 Mulliken atomic charges:
              1
     1  N   -0.491961
     2  H    0.174181
     3  H    0.163385
     4  H    0.154396
 Sum of Mulliken atomic charges =   0.00000

 Dipole moment (field-independent basis, Debye):
    X=             -0.0160    Y=             -0.5219    Z=              0.0778  Tot=              0.5279
  Exact polarizability:   8.277   1.055   0.717   1.795   0.575   4.906
 Approx polarizability:   6.476   0.866   0.470   1.446   0.478   3.771
 GetPCM: File not found, return IValue=0.
 LT D matrices:
                1             2             3             4             5
      1  0.207506D+01
      2 -0.283957D+00  0.119270D+01
      3  0.653052D-02 -0.531864D-01  0.673472D+00
      4 -0.330786D-01  0.171206D+00 -0.152085D+00  0.194430D+01
      5  0.603503D-02 -0.720932D-01 -0.703187D-03 -0.118537D+00  0.708392D+00

 ******    1 imaginary frequencies (negative Signs) ******

                     1                      2                      3
                     A                      A                      A
 Frequencies --  -969.7468              1680.3876              1931.7870
 Red. masses --     1.2059                 1.0997                 1.0365
 Frc consts  --     0.6681                 1.8295                 2.2790
 IR Inten    --   515.5476                11.5279                 7.1010

                     4                      5                      6
                     A                      A                      A
 Frequencies --  2059.6439              3874.8221              5095.7776
 Red. masses --     1.1060                 1.0727                 1.0781
 Frc consts  --     2.7643                 9.4897                16.4947
 IR Inten    --    10.1401                 3.0125                 0.6640

 - Thermochemistry -
 -------------------
 Temperature  2500.000 Kelvin.  Pressure   1.00000 Atm.
 Atom     1 has atomic number  7 and mass  14.00307

 Molecular mass:    17.02655 amu.
 Principal axes and moments of inertia in atomic units:
                           1         2         3
     Eigenvalues --     4.33849   8.41533  12.60467
           X            0.90171  -0.41570  -0.11880
           Y            0.14787   0.03832   0.98826
           Z            0.40627   0.90869  -0.09603
 This molecule is an asymmetric top.
 Rotational symmetry number  1.
 Rotational temperatures (Kelvin)     19.96405    10.29238     6.87157
 Rotational constants (GHZ):         415.98378   214.45873   143.18037
    1 imaginary frequencies ignored.
 Zero-point vibrational energy      87581.1 (Joules/Mol)
                                   20.93239 (Kcal/Mol)
 Warning -- explicit consideration of   5 degrees of freedom as
           vibrations may cause significant error
 Vibrational temperatures:   2417.70  2779.41  2963.36  5575.00  7331.68
          (Kelvin)

 Zero-point correction=                           0.033358 (Hartree/Particle)
 Thermal correction to Energy=                    0.073685
 Thermal correction to Enthalpy=                  0.081602
 Thermal correction to Gibbs Free Energy=        -0.206054
 Sum of electronic and zero-point Energies=            -55.341958
 Sum of electronic and thermal Energies=               -55.301631
 Sum of electronic and thermal Enthalpies=             -55.293714
 Sum of electronic and thermal Free Energies=          -55.581369

                     E (Thermal)             CV                S
                      KCal/Mol        Cal/Mol-Kelvin    Cal/Mol-Kelvin
 Total                   46.238             13.715             72.203
 Electronic               0.000              0.000              0.000
 Translational            7.452              2.981             45.005
 Rotational               7.452              2.981             20.234
 Vibrational             31.334              7.753              6.964
 Vibration     1          5.349              1.839              2.129
 Vibration     2          5.469              1.795              1.876
 Vibration     3          5.537              1.770              1.762
 Vibration     4          6.874              1.334              0.760
 Vibration     5          8.104              1.015              0.437

 Normal termination of Gaussian 09 at Sun Jun 27 11:55:50 2021.
